 Gaussian 03, Revision B.05,
 Gaussian 03:  x86-Linux-G03RevB.05 24-Oct-2003

 ----------------------------------------------------------------------
 #UB3LYP/6-311+G(3df,2p) Opt(Maxcycle=100) Freq SCF(Tight, MaxCycle=100
 0)
 ----------------------------------------------------------------------

 ----------------------------------
 input for acetyl radical (C(O)CD3)
 ----------------------------------
 Symbolic Z-matrix:
 Charge =  0 Multiplicity = 2

 SCF Done:  E(UB+HF-LYP) =  -153.241031227     A.U. after   13 cycles
 SCF Done:  E(UB+HF-LYP) =  -153.241977315     A.U. after   12 cycles
 SCF Done:  E(UB+HF-LYP) =  -153.242056784     A.U. after   11 cycles
 SCF Done:  E(UB+HF-LYP) =  -153.242062220     A.U. after    9 cycles
 SCF Done:  E(UB+HF-LYP) =  -153.242063888     A.U. after    9 cycles
 SCF Done:  E(UB+HF-LYP) =  -153.242064364     A.U. after    9 cycles
 SCF Done:  E(UB+HF-LYP) =  -153.242064824     A.U. after    9 cycles
 SCF Done:  E(UB+HF-LYP) =  -153.242064994     A.U. after    9 cycles
 Optimization completed.
    -- Stationary point found.
 Normal termination of Gaussian 03 at Mon Oct 10 15:33:20 2005.

 ----------------------------------------------------------------------
 #N Geom=AllCheck Guess=Read SCRF=Check GenChk UB3LYP/6-311+G(3df,2p) F
 req
 ----------------------------------------------------------------------

 input for acetyl radical (C(O)CD3)
 ----------------------------------
 Redundant internal coordinates taken from checkpoint file:
 acetyl_radical.chk
 Charge =  0 Multiplicity = 2

                         Standard orientation:
 ---------------------------------------------------------------------
 Center     Atomic     Atomic              Coordinates (Angstroms)
 Number     Number      Type              X           Y           Z
 ---------------------------------------------------------------------
    1          6             0        0.245623   -0.426536   -0.000026
    2          8             0        1.259366    0.171808    0.000000
    3          6             0       -1.166536    0.097147   -0.000040
    4          1             0       -1.681267   -0.292811    0.877822
    5          1             0       -1.185848    1.189304   -0.001019
    6          1             0       -1.682331   -0.294618   -0.876405
 ---------------------------------------------------------------------

 SCF Done:  E(UB+HF-LYP) =  -153.242064994     A.U. after    1 cycles

 The electronic state is 2-A.
 Alpha  occ. eigenvalues --  -19.17472 -10.27146 -10.20571  -1.10242  -0.77461
 Alpha  occ. eigenvalues --   -0.55729  -0.48237  -0.47390  -0.46974  -0.40339
 Alpha  occ. eigenvalues --   -0.40157  -0.20531
 Alpha virt. eigenvalues --   -0.03608   0.00453   0.03596   0.04261   0.04346
 Alpha virt. eigenvalues --    0.07505   0.08355   0.08969   0.12291   0.12313
 Alpha virt. eigenvalues --    0.14637   0.20303   0.21773   0.22794   0.23714

  Beta  occ. eigenvalues --  -19.16664 -10.26147 -10.20242  -1.08709  -0.76276
  Beta  occ. eigenvalues --   -0.53870  -0.46490  -0.46069  -0.45681  -0.39875
  Beta  occ. eigenvalues --   -0.36674
  Beta virt. eigenvalues --   -0.07595  -0.02078   0.01015   0.03875   0.04285
  Beta virt. eigenvalues --    0.04325   0.07568   0.08753   0.09022   0.12486
  Beta virt. eigenvalues --    0.12516   0.15017   0.20467   0.21818   0.23486

 Mulliken atomic charges:
              1
     1  C    0.233102
     2  O   -0.451065
     3  C   -0.302039
     4  H    0.178989
     5  H    0.162028
     6  H    0.178986
 Sum of Mulliken charges=   0.00000

 Dipole moment (field-independent basis, Debye):
    X=    -2.5926    Y=     0.1922    Z=     0.0002  Tot=     2.5997
 Quadrupole moment (field-independent basis, Debye-Ang):
   XX=   -19.2001   YY=   -19.1713   ZZ=   -17.2599
   XY=    -0.1685   XZ=    -0.0003   YZ=     0.0003

  Exact polarizability:  36.421   0.536  29.745  -0.001  -0.001  24.231
 Approx polarizability:  50.085   4.929  39.511  -0.002  -0.001  33.038

                     1                      2                      3
                     A                      A                      A
 Frequencies --   110.8594               469.8360               852.9605
 Red. masses --     1.6121                 3.2754                 4.1025
 Frc consts  --     0.0117                 0.4260                 1.7586
 IR Inten    --     0.7358                 5.7564                 5.7566

                     4                      5                      6
                     A                      A                      A
 Frequencies --   955.5673              1049.6839              1359.1474
 Red. masses --     1.3217                 1.6583                 1.1925
 Frc consts  --     0.7111                 1.0766                 1.2979
 IR Inten    --     0.0306                15.8290                14.0449

                     7                      8                      9
                     A                      A                      A
 Frequencies --  1454.3118              1459.6421              1930.1084
 Red. masses --     1.0487                 1.0493                12.2299
 Frc consts  --     1.3069                 1.3171                26.8433
 IR Inten    --    12.5150                23.0840               162.8363

                    10                     11                     12
                     A                      A                      A
 Frequencies --  3014.0596              3104.5876              3110.7727
 Red. masses --     1.0355                 1.1000                 1.0998
 Frc consts  --     5.5425                 6.2467                 6.2703
 IR Inten    --     8.6691                 8.2667                 0.7809

 - Thermochemistry -
 -------------------
 Temperature   298.150 Kelvin.  Pressure   1.00000 Atm.
 Atom  1 has atomic number  6 and mass  12.00000

 Molecular mass:    43.01839 amu.
 Principal axes and moments of inertia in atomic units:
                           1         2         3
     EIGENVALUES --    21.08787 180.78017 190.79275
           X            0.99994  -0.01075  -0.00001
           Y            0.01075   0.99994  -0.00001
           Z            0.00001   0.00001   1.00000
 This molecule is an asymmetric top.
 Rotational symmetry number  1.
 Rotational temperatures (Kelvin)      4.10728     0.47911     0.45397
 Rotational constants (GHZ):          85.58197     9.98307     9.45917
 Zero-point vibrational energy     112876.9 (Joules/Mol)
                                   26.97822 (Kcal/Mol)
 Warning -- explicit consideration of   2 degrees of freedom as
           vibrations may cause significant error
 Vibrational temperatures:    159.50   675.99  1227.22  1374.85  1510.26
          (Kelvin)           1955.51  2092.43  2100.10  2776.99  4336.55
                             4466.80  4475.70

 Zero-point correction=                           0.042993 (Hartree/Particle)
 Thermal correction to Energy=                    0.046946
 Thermal correction to Enthalpy=                  0.047891
 Thermal correction to Gibbs Free Energy=         0.017390
 Sum of electronic and zero-point Energies=           -153.199072
 Sum of electronic and thermal Energies=              -153.195119
 Sum of electronic and thermal Enthalpies=            -153.194174
 Sum of electronic and thermal Free Energies=         -153.224675

                     E (Thermal)             CV                S
                      KCal/Mol        Cal/Mol-Kelvin    Cal/Mol-Kelvin
 Total                   29.459             10.852             64.195
 Electronic               0.000              0.000              1.377
 Translational            0.889              2.981             37.204
 Rotational               0.889              2.981             21.214
 Vibrational             27.682              4.891              4.400
 Vibration  1             0.607              1.940              3.254
 Vibration  2             0.827              1.317              0.738

 Optimization completed.
    -- Stationary point found.
 Normal termination of Gaussian 03 at Mon Oct 10 16:05:35 2005.
