 Gaussian 03, Revision B.05,
 Gaussian 03:  x86-Linux-G03RevB.05 24-Oct-2003

 ----------------------------------------------------------------------
 # opt=maxcycle=100 freq ub3lyp/6-311+g(3df,2p) geom=connectivity scf=(
 tight,maxcycle=1000)
 ----------------------------------------------------------------------

 ---------------
 acetyl peroxide
 ---------------
 Symbolic Z-matrix:
 Charge =  0 Multiplicity = 2

 SCF Done:  E(UB+HF-LYP) =  -303.643183266     A.U. after   15 cycles
 SCF Done:  E(UB+HF-LYP) =  -303.662089976     A.U. after   16 cycles
 SCF Done:  E(UB+HF-LYP) =  -303.668121923     A.U. after   13 cycles
 SCF Done:  E(UB+HF-LYP) =  -303.668524438     A.U. after   16 cycles
 SCF Done:  E(UB+HF-LYP) =  -303.668581249     A.U. after   16 cycles
 SCF Done:  E(UB+HF-LYP) =  -303.668580669     A.U. after   18 cycles
 SCF Done:  E(UB+HF-LYP) =  -303.668585860     A.U. after   10 cycles
 SCF Done:  E(UB+HF-LYP) =  -303.668574922     A.U. after   18 cycles
 SCF Done:  E(UB+HF-LYP) =  -303.668589211     A.U. after   11 cycles
 SCF Done:  E(UB+HF-LYP) =  -303.668590431     A.U. after    8 cycles
 Optimization completed.
    -- Stationary point found.
 Normal termination of Gaussian 03 at Fri Oct 21 17:10:23 2005.

 ----------------------------------------------------------------------
 #N Geom=AllCheck Guess=Read SCRF=Check GenChk UB3LYP/6-311+G(3df,2p) F
 req
 ----------------------------------------------------------------------

 acetyl peroxide
 ---------------
 Redundant internal coordinates taken from checkpoint file:
 peroxide_isomer_opt.chk
 Charge =  0 Multiplicity = 2

                         Standard orientation:
 ---------------------------------------------------------------------
 Center     Atomic     Atomic              Coordinates (Angstroms)
 Number     Number      Type              X           Y           Z
 ---------------------------------------------------------------------
    1          6             0        0.483054    0.135471   -0.000047
    2          8             0        0.226604    1.324843    0.000049
    3          6             0        1.779129   -0.476062    0.000040
    4          1             0       -1.540067    0.763867    0.000076
    5          1             0        1.885839   -1.549340    0.000006
    6          1             0        2.645258    0.165452    0.000150
    7          8             0       -0.506281   -0.804030   -0.000076
    8          8             0       -1.790839   -0.187867    0.000003
 ---------------------------------------------------------------------

 SCF Done:  E(UB+HF-LYP) =  -303.668590431     A.U. after    1 cycles

 The electronic state is 2-A.
 Alpha  occ. eigenvalues --  -19.24433 -19.20893 -19.14894 -10.32912 -10.24162
 Alpha  occ. eigenvalues --   -1.19510  -1.07557  -0.95727  -0.78385  -0.64215
 Alpha  occ. eigenvalues --   -0.55360  -0.52131  -0.50817  -0.47356  -0.44746
 Alpha  occ. eigenvalues --   -0.41608  -0.40864  -0.33141  -0.31522  -0.28175
 Alpha virt. eigenvalues --   -0.02000  -0.00046   0.00240   0.03307   0.03901
 Alpha virt. eigenvalues --    0.05599   0.07138   0.07545   0.09164   0.10324
 Alpha virt. eigenvalues --    0.13480   0.16713   0.16887   0.17369   0.17433

  Beta  occ. eigenvalues --  -19.24229 -19.20816 -19.14515 -10.33040 -10.22917
  Beta  occ. eigenvalues --   -1.19219  -1.06936  -0.95400  -0.75535  -0.63791
  Beta  occ. eigenvalues --   -0.54569  -0.51740  -0.49715  -0.46686  -0.44334
  Beta  occ. eigenvalues --   -0.41440  -0.39124  -0.32667  -0.29681
  Beta virt. eigenvalues --   -0.15603  -0.01806   0.00192   0.01763   0.03333
  Beta virt. eigenvalues --    0.03965   0.06803   0.07339   0.07569   0.10120
  Beta virt. eigenvalues --    0.10649   0.13900   0.16861   0.17067   0.17559

 Mulliken atomic charges:
              1
     1  C    0.991208
     2  O   -0.726915
     3  C   -0.352080
     4  H    0.289049
     5  H    0.185129
     6  H    0.197635
     7  O   -0.296840
     8  O   -0.287187
 Sum of Mulliken charges=   0.00000

 Dipole moment (field-independent basis, Debye):
    X=     2.3392    Y=    -0.7759    Z=     0.0001  Tot=     2.4645
 Quadrupole moment (field-independent basis, Debye-Ang):
   XX=   -25.3695   YY=   -30.9404   ZZ=   -29.2799
   XY=    -4.1901   XZ=     0.0000   YZ=     0.0000

  Exact polarizability:  56.424  -1.917  40.603   0.000   0.001  26.511
 Approx polarizability:  76.348  -1.525  66.191   0.000   0.002  36.481

                     1                      2                      3
                     A                      A                      A
 Frequencies --   206.2304               322.6668               336.7996
 Red. masses --     7.3091                 3.9222                 1.0426
 Frc consts  --     0.1832                 0.2406                 0.0697
 IR Inten    --     0.9048                17.2463                 0.1414

                     4                      5                      6
                     A                      A                      A
 Frequencies --   425.9810               499.7561               639.0242
 Red. masses --     4.0094                 1.1477                 1.7214
 Frc consts  --     0.4287                 0.1689                 0.4142
 IR Inten    --     8.2805                80.6953                 0.2230

                     7                      8                      9
                     A                      A                      A
 Frequencies --   683.9563               768.2432               873.4549
 Red. masses --     5.4934                 2.7749                 3.5658
 Frc consts  --     1.5141                 0.9649                 1.6028
 IR Inten    --     9.9194                61.7936                63.8834

                    10                     11                     12
                     A                      A                      A
 Frequencies --  1008.2554              1029.8794              1248.4029
 Red. masses --     8.9229                 2.3595                 4.2151
 Frc consts  --     5.3444                 1.4745                 3.8705
 IR Inten    --     0.7756                 5.6949                91.0831

                    13                     14                     15
                     A                      A                      A
 Frequencies --  1451.2159              1502.3398              1710.3720
 Red. masses --     1.2431                 1.1916                 8.5742
 Frc consts  --     1.5424                 1.5846                14.7783
 IR Inten    --     7.3538               121.9995               168.9924

                    16                     17                     18
                     A                      A                      A
 Frequencies --  3169.9573              3289.8637              3474.3897
 Red. masses --     1.0506                 1.1220                 1.0655
 Frc consts  --     6.2202                 7.1551                 7.5779
 IR Inten    --     0.6983                 0.5209                66.8257

 - Thermochemistry -
 -------------------
 Temperature   298.150 Kelvin.  Pressure   1.00000 Atm.
 Atom  1 has atomic number  6 and mass  12.00000

 Molecular mass:    75.00822 amu.
 Principal axes and moments of inertia in atomic units:
                           1         2         3
     EIGENVALUES --   159.78479 393.23454 553.01933
           X            0.99843  -0.05593  -0.00001
           Y            0.05593   0.99843  -0.00004
           Z            0.00002   0.00004   1.00000
 This molecule is an asymmetric top.
 Rotational symmetry number  1.
 Rotational temperatures (Kelvin)      0.54207     0.22026     0.15662
 Rotational constants (GHZ):          11.29482     4.58948     3.26343
 Zero-point vibrational energy     135422.0 (Joules/Mol)
                                   32.36663 (Kcal/Mol)
 Warning -- explicit consideration of   5 degrees of freedom as
           vibrations may cause significant error
 Vibrational temperatures:    296.72   464.24   484.58   612.89   719.04
          (Kelvin)            919.41   984.06  1105.33  1256.71  1450.65
                             1481.76  1796.17  2087.97  2161.53  2460.84
                             4560.86  4733.37  4998.87

 Zero-point correction=                           0.051580 (Hartree/Particle)
 Thermal correction to Energy=                    0.056743
 Thermal correction to Enthalpy=                  0.057687
 Thermal correction to Gibbs Free Energy=         0.023114
 Sum of electronic and zero-point Energies=           -303.617011
 Sum of electronic and thermal Energies=              -303.611847
 Sum of electronic and thermal Enthalpies=            -303.610903
 Sum of electronic and thermal Free Energies=         -303.645477

                     E (Thermal)             CV                S
                      KCal/Mol        Cal/Mol-Kelvin    Cal/Mol-Kelvin
 Total                   35.607             17.829             72.766
 Electronic               0.000              0.000              1.377
 Translational            0.889              2.981             38.861
 Rotational               0.889              2.981             25.055
 Vibrational             33.829             11.867              7.472
 Vibration  1             0.641              1.831              2.077
 Vibration  2             0.708              1.630              1.297
 Vibration  3             0.718              1.602              1.227
 Vibration  4             0.788              1.414              0.872
 Vibration  5             0.855              1.251              0.659

 Optimization completed.
    -- Stationary point found.
 Normal termination of Gaussian 03 at Fri Oct 21 19:28:17 2005.
