 Gaussian 03, Revision B.05,
 Gaussian 03:  x86-Linux-G03RevB.05 24-Oct-2003

 ----------------------------------------------------------
 # opt freq b3lyp/6-311+g(3df,2p) scf=(tight,maxcycle=1000)
 ----------------------------------------------------------

 --------------------------------------------------------------
 acetyl radical, O2 adduct, not constrained to have Cs symmetry
 --------------------------------------------------------------
 Symbolic Z-matrix:
 Charge =  0 Multiplicity = 1

 SCF Done:  E(RB+HF-LYP) =  -227.856269002     A.U. after   11 cycles
 SCF Done:  E(RB+HF-LYP) =  -227.884468974     A.U. after   12 cycles
 SCF Done:  E(RB+HF-LYP) =  -227.892886942     A.U. after   11 cycles
 SCF Done:  E(RB+HF-LYP) =  -227.894347804     A.U. after   10 cycles
 SCF Done:  E(RB+HF-LYP) =  -227.894727558     A.U. after   10 cycles
 SCF Done:  E(RB+HF-LYP) =  -227.894814637     A.U. after   14 cycles
 SCF Done:  E(RB+HF-LYP) =  -227.894824093     A.U. after   13 cycles
 SCF Done:  E(RB+HF-LYP) =  -227.894831056     A.U. after   13 cycles
 Optimization completed.
    -- Stationary point found.
 Normal termination of Gaussian 03 at Thu Oct 20 14:35:45 2005.

 ----------------------------------------------------------------------
 #N Geom=AllCheck Guess=Read SCRF=Check GenChk RB3LYP/6-311+G(3df,2p) F
 req
 ----------------------------------------------------------------------

 acetyl radical, O2 adduct, not constrained to have Cs symmetry
 --------------------------------------------------------------
 Redundant internal coordinates taken from checkpoint file:
 lactam.chk
 Charge =  0 Multiplicity = 1

                         Standard orientation:
 ---------------------------------------------------------------------
 Center     Atomic     Atomic              Coordinates (Angstroms)
 Number     Number      Type              X           Y           Z
 ---------------------------------------------------------------------
    1          6             0       -0.325248   -0.069468   -0.000358
    2          8             0       -1.505478   -0.159374    0.000077
    3          6             0        1.025294   -0.587900    0.000008
    4          1             0        1.497901   -0.898157   -0.922751
    5          1             0        1.496839   -0.899020    0.923047
    6          8             0        0.606100    0.877047    0.000148
 ---------------------------------------------------------------------

 SCF Done:  E(RB+HF-LYP) =  -227.894831056     A.U. after    1 cycles

 The electronic state is 1-A.
 Alpha  occ. eigenvalues --  -19.20188 -19.14980 -10.33308 -10.27186  -1.15522
 Alpha  occ. eigenvalues --   -1.07328  -0.73357  -0.60346  -0.54370  -0.51222
 Alpha  occ. eigenvalues --   -0.48190  -0.42113  -0.41122  -0.34591  -0.29990
 Alpha virt. eigenvalues --   -0.01946  -0.01547  -0.00378   0.03378   0.03505
 Alpha virt. eigenvalues --    0.07168   0.08122   0.08564   0.09236   0.12560
 Alpha virt. eigenvalues --    0.13713   0.18233   0.18502   0.19324   0.20006

 Mulliken atomic charges:
              1
     1  C    0.930283
     2  O   -0.656628
     3  C   -0.142409
     4  H    0.175559
     5  H    0.175536
     6  O   -0.482340
 Sum of Mulliken charges=   0.00000

 Dipole moment (field-independent basis, Debye):
    X=     2.9694    Y=    -1.6170    Z=    -0.0007  Tot=     3.3811
 Quadrupole moment (field-independent basis, Debye-Ang):
   XX=   -24.6344   YY=   -23.3135   ZZ=   -20.7561
   XY=    -2.8014   XZ=     0.0000   YZ=    -0.0016

  Exact polarizability:  37.916  -2.305  28.107  -0.002  -0.001  22.554
 Approx polarizability:  56.163  -0.641  43.698  -0.004  -0.001  30.885

                     1                      2                      3
                     A                      A                      A
 Frequencies --   494.1279               533.4186               719.0451
 Red. masses --     2.6863                 5.9220                12.9152
 Frc consts  --     0.3864                 0.9928                 3.9343
 IR Inten    --     6.0652                 6.2602                45.1551

                     4                      5                      6
                     A                      A                      A
 Frequencies --   946.3219              1002.5937              1065.6733
 Red. masses --     3.0700                 1.5208                 1.1953
 Frc consts  --     1.6198                 0.9007                 0.7998
 IR Inten    --    71.6143                 3.4865                 0.7110

                     7                      8                      9
                     A                      A                      A
 Frequencies --  1121.0823              1194.0052              1483.6242
 Red. masses --     6.3991                 1.8044                 1.1208
 Frc consts  --     4.7385                 1.5157                 1.4536
 IR Inten    --    73.8272                11.4485                 0.4499

                    10                     11                     12
                     A                      A                      A
 Frequencies --  2001.1268              3116.2402              3216.6490
 Red. masses --    12.2789                 1.0505                 1.1207
 Frc consts  --    28.9708                 6.0104                 6.8322
 IR Inten    --   513.5384                 3.6797                 1.2507

 - Thermochemistry -
 -------------------
 Temperature   298.150 Kelvin.  Pressure   1.00000 Atm.
 Atom  1 has atomic number  6 and mass  12.00000

 Molecular mass:    58.00548 amu.
 Principal axes and moments of inertia in atomic units:
                           1         2         3
     EIGENVALUES --    71.50798 222.39525 281.64150
           X            0.99786  -0.06539  -0.00001
           Y            0.06539   0.99786  -0.00006
           Z            0.00001   0.00006   1.00000
 This molecule is an asymmetric top.
 Rotational symmetry number  1.
 Rotational temperatures (Kelvin)      1.21125     0.38946     0.30753
 Rotational constants (GHZ):          25.23832     8.11502     6.40794
 Zero-point vibrational energy     101048.0 (Joules/Mol)
                                   24.15105 (Kcal/Mol)
 Warning -- explicit consideration of   2 degrees of freedom as
           vibrations may cause significant error
 Vibrational temperatures:    710.94   767.47  1034.54  1361.54  1442.51
          (Kelvin)           1533.26  1612.99  1717.91  2134.60  2879.17
                             4483.57  4628.03

 Zero-point correction=                           0.038487 (Hartree/Particle)
 Thermal correction to Energy=                    0.042010
 Thermal correction to Enthalpy=                  0.042954
 Thermal correction to Gibbs Free Energy=         0.013000
 Sum of electronic and zero-point Energies=           -227.856344
 Sum of electronic and thermal Energies=              -227.852821
 Sum of electronic and thermal Enthalpies=            -227.851877
 Sum of electronic and thermal Free Energies=         -227.881831

                     E (Thermal)             CV                S
                      KCal/Mol        Cal/Mol-Kelvin    Cal/Mol-Kelvin
 Total                   26.362             10.881             63.045
 Electronic               0.000              0.000              0.000
 Translational            0.889              2.981             38.095
 Rotational               0.889              2.981             23.020
 Vibrational             24.584              4.920              1.931
 Vibration  1             0.850              1.263              0.673
 Vibration  2             0.888              1.176              0.580

 Optimization completed.
    -- Stationary point found.
 Normal termination of Gaussian 03 at Thu Oct 20 15:16:26 2005.
