 Gaussian 03, Revision B.05,
 Gaussian 03:  x86-Linux-G03RevB.05 24-Oct-2003

 ----------------------------------------------------------------------
 # opt=(qst2,maxcycle=100) freq ub3lyp/6-311+g(3df,2p) scf=(tight,maxcy
 cle=1000)
 ----------------------------------------------------------------------

 -------------
 acetyl peroxy
 -------------
 Symbolic Z-matrix:
 Charge =  0 Multiplicity = 2

 ---------------
 acetyl peroxide
 ---------------
 Symbolic Z-matrix:
 Charge =  0 Multiplicity = 2

 SCF Done:  E(UB+HF-LYP) =  -303.593429467     A.U. after   22 cycles
 SCF Done:  E(UB+HF-LYP) =  -303.577586854     A.U. after   17 cycles
 SCF Done:  E(UB+HF-LYP) =  -303.566084320     A.U. after   17 cycles
 SCF Done:  E(UB+HF-LYP) =  -303.599938782     A.U. after   31 cycles
 SCF Done:  E(UB+HF-LYP) =  -303.621986430     A.U. after   14 cycles
 SCF Done:  E(UB+HF-LYP) =  -303.630388666     A.U. after   13 cycles
 SCF Done:  E(UB+HF-LYP) =  -303.631385170     A.U. after   13 cycles
 SCF Done:  E(UB+HF-LYP) =  -303.629070061     A.U. after   16 cycles
 SCF Done:  E(UB+HF-LYP) =  -303.629851101     A.U. after   16 cycles
 SCF Done:  E(UB+HF-LYP) =  -303.628753825     A.U. after   13 cycles
 SCF Done:  E(UB+HF-LYP) =  -303.640399564     A.U. after   13 cycles
 SCF Done:  E(UB+HF-LYP) =  -303.640483165     A.U. after   16 cycles
 SCF Done:  E(UB+HF-LYP) =  -303.640580655     A.U. after   13 cycles
 SCF Done:  E(UB+HF-LYP) =  -303.640589086     A.U. after   11 cycles
 SCF Done:  E(UB+HF-LYP) =  -303.640611459     A.U. after   12 cycles
 SCF Done:  E(UB+HF-LYP) =  -303.640624707     A.U. after   11 cycles
 SCF Done:  E(UB+HF-LYP) =  -303.640624725     A.U. after   11 cycles
 SCF Done:  E(UB+HF-LYP) =  -303.640624678     A.U. after   16 cycles
 SCF Done:  E(UB+HF-LYP) =  -303.640624781     A.U. after    9 cycles
 Optimization completed.
    -- Stationary point found.
 Normal termination of Gaussian 03 at Sat Oct 22 00:17:37 2005.

 ----------------------------------------------------------------------
 #N Geom=AllCheck Guess=Read SCRF=Check GenChk UB3LYP/6-311+G(3df,2p) F
 req
 ----------------------------------------------------------------------

 acetyl peroxide
 ---------------
 Redundant internal coordinates taken from checkpoint file:
 TS_peroxy_peroxide.chk
 Charge =  0 Multiplicity = 2

                         Standard orientation:
 ---------------------------------------------------------------------
 Center     Atomic     Atomic              Coordinates (Angstroms)
 Number     Number      Type              X           Y           Z
 ---------------------------------------------------------------------
    1          6             0        0.564149   -0.107623   -0.000013
    2          8             0        1.595893   -0.718440   -0.000313
    3          6             0        0.513219    1.371872    0.000101
    4          1             0       -1.461483    0.909876    0.001166
    5          1             0        0.704392    1.891093    0.928653
    6          1             0        0.703245    1.891365   -0.928531
    7          8             0       -0.596741   -0.807670    0.000575
    8          8             0       -1.800447   -0.008619   -0.000488
 ---------------------------------------------------------------------

 SCF Done:  E(UB+HF-LYP) =  -303.640624781     A.U. after    1 cycles

 The electronic state is 2-A.
 Alpha  occ. eigenvalues --  -19.24494 -19.22055 -19.15336 -10.34046 -10.24335
 Alpha  occ. eigenvalues --   -1.18821  -1.09402  -0.95761  -0.78996  -0.64879
 Alpha  occ. eigenvalues --   -0.55843  -0.52485  -0.51086  -0.46415  -0.44977
 Alpha  occ. eigenvalues --   -0.43366  -0.40082  -0.34457  -0.30520  -0.28337
 Alpha virt. eigenvalues --   -0.03751  -0.03578  -0.00956   0.03462   0.03492
 Alpha virt. eigenvalues --    0.04586   0.07312   0.07472   0.08131   0.08915
 Alpha virt. eigenvalues --    0.13198   0.14806   0.16301   0.17234   0.19322

  Beta  occ. eigenvalues --  -19.24522 -19.21893 -19.15040 -10.34112 -10.22983
  Beta  occ. eigenvalues --   -1.18670  -1.08859  -0.95502  -0.76048  -0.64376
  Beta  occ. eigenvalues --   -0.54848  -0.52090  -0.50479  -0.45952  -0.44401
  Beta  occ. eigenvalues --   -0.43058  -0.39848  -0.32115  -0.30403
  Beta virt. eigenvalues --   -0.14304  -0.03775  -0.03252  -0.00571   0.03503
  Beta virt. eigenvalues --    0.03549   0.05652   0.07381   0.07742   0.08119
  Beta virt. eigenvalues --    0.09527   0.13381   0.15130   0.16832   0.17933

 Mulliken atomic charges:
              1
     1  C    1.102604
     2  O   -0.635070
     3  C   -0.551531
     4  H    0.273703
     5  H    0.195575
     6  H    0.195551
     7  O   -0.316796
     8  O   -0.264035
 Sum of Mulliken charges=   0.00000

 Dipole moment (field-independent basis, Debye):
    X=    -0.4324    Y=     3.8233    Z=     0.0022  Tot=     3.8476
 Quadrupole moment (field-independent basis, Debye-Ang):
   XX=   -34.9327   YY=   -26.8422   ZZ=   -27.4750
   XY=     0.8281   XZ=    -0.0014   YZ=     0.0020

  Exact polarizability:  50.265  -2.910  43.128  -0.002   0.001  27.938
 Approx polarizability:  79.298 -10.263  61.343  -0.003   0.002  38.923

 ******    1 imaginary frequencies (negative Signs) ******

                     1                      2                      3
                     A                      A                      A
 Frequencies --  -286.3247                87.7544               291.3629
 Red. masses --     1.0448                 5.1519                 1.2100
 Frc consts  --     0.0505                 0.0234                 0.0605
 IR Inten    --     6.1378                20.3236                38.4034

                     4                      5                      6
                     A                      A                      A
 Frequencies --   306.6749               436.4677               547.4090
 Red. masses --     4.0392                 2.3230                 2.3209
 Frc consts  --     0.2238                 0.2607                 0.4098
 IR Inten    --     2.0635                48.4365                12.6914

                     7                      8                      9
                     A                      A                      A
 Frequencies --   581.0601               681.5869               820.3327
 Red. masses --     7.0257                 2.2493                 6.5617
 Frc consts  --     1.3976                 0.6157                 2.6016
 IR Inten    --     4.8099                 7.4353                58.8709

                    10                     11                     12
                     A                      A                      A
 Frequencies --   972.3293              1024.2170              1240.2140
 Red. masses --    12.4720                 1.8336                 7.9526
 Frc consts  --     6.9472                 1.1333                 7.2070
 IR Inten    --     3.1435                 4.0041               258.1887

                    13                     14                     15
                     A                      A                      A
 Frequencies --  1415.8210              1437.3473              1796.6826
 Red. masses --     1.1720                 1.1390                13.0047
 Frc consts  --     1.3842                 1.3865                24.7339
 IR Inten    --    26.6424                51.0320               235.7364

                    16                     17                     18
                     A                      A                      A
 Frequencies --  3143.3650              3250.2560              3521.5541
 Red. masses --     1.0500                 1.1179                 1.0680
 Frc consts  --     6.1126                 6.9579                 7.8036
 IR Inten    --     2.6812                 1.7588                41.6637

 - Thermochemistry -
 -------------------
 Temperature   298.150 Kelvin.  Pressure   1.00000 Atm.
 Atom  1 has atomic number  6 and mass  12.00000

 Molecular mass:    75.00822 amu.
 Principal axes and moments of inertia in atomic units:
                           1         2         3
     EIGENVALUES --   181.69265 393.46107 562.74017
           X            0.99975   0.02218   0.00000
           Y           -0.02218   0.99975   0.00002
           Z            0.00001  -0.00002   1.00000
 This molecule is an asymmetric top.
 Rotational symmetry number  1.
 Rotational temperatures (Kelvin)      0.47671     0.22013     0.15391
 Rotational constants (GHZ):           9.93293     4.58684     3.20706
    1 imaginary frequencies ignored.
 Zero-point vibrational energy     128924.2 (Joules/Mol)
                                   30.81361 (Kcal/Mol)
 Warning -- explicit consideration of   6 degrees of freedom as
           vibrations may cause significant error
 Vibrational temperatures:    126.26   419.21   441.24   627.98   787.60
          (Kelvin)            836.01   980.65  1180.27  1398.96  1473.62
                             1784.39  2037.05  2068.02  2585.02  4522.60
                             4676.39  5066.72

 Zero-point correction=                           0.049105 (Hartree/Particle)
 Thermal correction to Energy=                    0.054473
 Thermal correction to Enthalpy=                  0.055417
 Thermal correction to Gibbs Free Energy=         0.019950
 Sum of electronic and zero-point Energies=           -303.591520
 Sum of electronic and thermal Energies=              -303.586152
 Sum of electronic and thermal Enthalpies=            -303.585208
 Sum of electronic and thermal Free Energies=         -303.620675

                     E (Thermal)             CV                S
                      KCal/Mol        Cal/Mol-Kelvin    Cal/Mol-Kelvin
 Total                   34.182             17.520             74.646
 Electronic               0.000              0.000              1.377
 Translational            0.889              2.981             38.861
 Rotational               0.889              2.981             25.201
 Vibrational             32.405             11.559              9.206
 Vibration  1             0.601              1.958              3.710
 Vibration  2             0.687              1.690              1.466
 Vibration  3             0.697              1.661              1.380
 Vibration  4             0.797              1.391              0.838
 Vibration  5             0.903              1.145              0.550
 Vibration  6             0.938              1.072              0.483

 Normal termination of Gaussian 03 at Sat Oct 22 02:39:46 2005.
