 Gaussian 03, Revision B.05,
 Gaussian 03:  x86-Linux-G03RevB.05 24-Oct-2003

 -----------------------------------------------------------------
 #ub3lyp/6-311+G(3df,2p) freq scf(tight,maxcycle=1000) geom(check)
 -----------------------------------------------------------------

 HO2 production TS?
 ------------------
 Redundant internal coordinates taken from checkpoint file:
 HO2_TS_ii.chk
 Charge =  0 Multiplicity = 2

                         Standard orientation:
 ---------------------------------------------------------------------
 Center     Atomic     Atomic              Coordinates (Angstroms)
 Number     Number      Type              X           Y           Z
 ---------------------------------------------------------------------
    1          6             0       -1.020872    0.078303    0.000061
    2          8             0       -1.719809   -0.829855   -0.000248
    3          6             0       -0.429821    1.316972    0.000162
    4          1             0       -0.627735    1.874466   -0.911463
    5          1             0       -0.626078    1.873504    0.912741
    6          1             0        0.888507    0.963807   -0.000621
    7          8             0        1.052790   -0.928671    0.000460
    8          8             0        1.800702    0.123098   -0.000462
 ---------------------------------------------------------------------

 SCF Done:  E(UB+HF-LYP) =  -303.620915749     A.U. after   15 cycles

 The electronic state is 2-A.
 Alpha  occ. eigenvalues --  -19.23188 -19.20761 -19.19529 -10.34776 -10.21279
 Alpha  occ. eigenvalues --   -1.18411  -1.16868  -0.82361  -0.80411  -0.58047
 Alpha  occ. eigenvalues --   -0.55197  -0.52451  -0.52380  -0.48066  -0.47077
 Alpha  occ. eigenvalues --   -0.46826  -0.44489  -0.33496  -0.27260  -0.25225
 Alpha virt. eigenvalues --   -0.07124  -0.03282  -0.00466   0.02643   0.03516
 Alpha virt. eigenvalues --    0.04664   0.06969   0.07365   0.08037   0.11563
 Alpha virt. eigenvalues --    0.12518   0.13315   0.15663   0.16826   0.18763

  Beta  occ. eigenvalues --  -19.23215 -19.19408 -19.17784 -10.34808 -10.21278
  Beta  occ. eigenvalues --   -1.17063  -1.15243  -0.82254  -0.76212  -0.58081
  Beta  occ. eigenvalues --   -0.54635  -0.52369  -0.52352  -0.46595  -0.45235
  Beta  occ. eigenvalues --   -0.44512  -0.39406  -0.32679  -0.23932
  Beta virt. eigenvalues --   -0.10251  -0.06880  -0.03167  -0.00421   0.02684
  Beta virt. eigenvalues --    0.03570   0.04713   0.06960   0.07586   0.08114
  Beta virt. eigenvalues --    0.11798   0.12600   0.13795   0.16241   0.17053

 Mulliken atomic charges:
              1
     1  C    0.675301
     2  O   -0.548043
     3  C   -0.401165
     4  H    0.197431
     5  H    0.197429
     6  H    0.371056
     7  O   -0.244001
     8  O   -0.248009
 Sum of Mulliken charges=   0.00000

 Dipole moment (field-independent basis, Debye):
    X=    -2.3790    Y=     3.0701    Z=     0.0005  Tot=     3.8840
 Quadrupole moment (field-independent basis, Debye-Ang):
   XX=   -33.8233   YY=   -27.8370   ZZ=   -26.6816
   XY=    -0.6212   XZ=     0.0009   YZ=     0.0007

  Exact polarizability:  56.183   1.632  47.363   0.000  -0.001  27.997
 Approx polarizability:  95.006  13.661  77.465  -0.001  -0.006  39.936

 ******    1 imaginary frequencies (negative Signs) ******

                     1                      2                      3
                     A                      A                      A
 Frequencies -- -1062.8581                58.9178               210.6371
 Red. masses --     1.2979                 3.8679                13.5393
 Frc consts  --     0.8639                 0.0079                 0.3539
 IR Inten    --   610.1672                 0.6611                30.7888

                     4                      5                      6
                     A                      A                      A
 Frequencies --   351.1485               471.5286               493.1359
 Red. masses --     1.3400                 2.3960                 5.1118
 Frc consts  --     0.0974                 0.3139                 0.7324
 IR Inten    --     0.0061                 4.6479                91.7857

                     7                      8                      9
                     A                      A                      A
 Frequencies --   549.9057               656.6765               885.5224
 Red. masses --     9.2278                 3.3552                 1.3842
 Frc consts  --     1.6441                 0.8525                 0.6395
 IR Inten    --   198.2588               103.9492                76.4149

                    10                     11                     12
                     A                      A                      A
 Frequencies --  1027.6419              1089.9743              1276.4269
 Red. masses --     1.6675                 4.0157                12.2687
 Frc consts  --     1.0375                 2.8109                11.7771
 IR Inten    --     5.6732               141.9561               112.8547

                    13                     14                     15
                     A                      A                      A
 Frequencies --  1311.1723              1388.6216              1701.6942
 Red. masses --     1.0411                 1.1603                 1.0622
 Frc consts  --     1.0546                 1.3182                 1.8122
 IR Inten    --    26.7550                12.8241                26.8780

                    16                     17                     18
                     A                      A                      A
 Frequencies --  2181.6392              3091.2077              3164.8605
 Red. masses --    11.4880                 1.0537                 1.1087
 Frc consts  --    32.2152                 5.9322                 6.5430
 IR Inten    --   495.7941                14.6199                 5.2460

 - Thermochemistry -
 -------------------
 Temperature   298.150 Kelvin.  Pressure   1.00000 Atm.
 Atom  1 has atomic number  6 and mass  12.00000

 Molecular mass:    75.00822 amu.
 Principal axes and moments of inertia in atomic units:
                           1         2         3
     EIGENVALUES --   197.52118 481.79170 667.33631
           X            0.99982  -0.01885   0.00000
           Y            0.01885   0.99982   0.00002
           Z            0.00000  -0.00002   1.00000
 This molecule is an asymmetric top.
 Rotational symmetry number  1.
 Rotational temperatures (Kelvin)      0.43850     0.17977     0.12979
 Rotational constants (GHZ):           9.13695     3.74590     2.70440
    1 imaginary frequencies ignored.
 Zero-point vibrational energy     119092.5 (Joules/Mol)
                                   28.46379 (Kcal/Mol)
 Warning -- explicit consideration of   6 degrees of freedom as
           vibrations may cause significant error
 Vibrational temperatures:     84.77   303.06   505.22   678.42   709.51
          (Kelvin)            791.19   944.81  1274.07  1478.55  1568.23
                             1836.49  1886.48  1997.91  2448.36  3138.89
                             4447.55  4553.52

 Zero-point correction=                           0.045360 (Hartree/Particle)
 Thermal correction to Energy=                    0.050859
 Thermal correction to Enthalpy=                  0.051803
 Thermal correction to Gibbs Free Energy=         0.015561
 Sum of electronic and zero-point Energies=           -303.575556
 Sum of electronic and thermal Energies=              -303.570057
 Sum of electronic and thermal Enthalpies=            -303.569113
 Sum of electronic and thermal Free Energies=         -303.605355

                     E (Thermal)             CV                S
                      KCal/Mol        Cal/Mol-Kelvin    Cal/Mol-Kelvin
 Total                   31.914             17.578             76.277
 Electronic               0.000              0.000              1.377
 Translational            0.889              2.981             38.861
 Rotational               0.889              2.981             25.655
 Vibrational             30.137             11.616             10.384
 Vibration  1             0.596              1.974              4.493
 Vibration  2             0.643              1.825              2.038
 Vibration  3             0.728              1.573              1.161
 Vibration  4             0.828              1.313              0.733
 Vibration  5             0.849              1.265              0.676
 Vibration  6             0.905              1.140              0.544

 Optimization completed.
    -- Stationary point found.
 Normal termination of Gaussian 03 at Wed May  9 16:10:20 2007.
