 Gaussian 03, Revision B.05,
 Gaussian 03:  x86-Linux-G03RevB.05 24-Oct-2003

 ----------------------------------------------------------
 # opt freq b3lyp/6-311+g(3df,2p) scf=(tight,maxcycle=1000)
 ----------------------------------------------------------

 --------------------------------------------------------------
 acetyl radical, O2 adduct, not constrained to have Cs symmetry
 --------------------------------------------------------------
 Symbolic Z-matrix:
 Charge =  0 Multiplicity = 2

 SCF Done:  E(UB+HF-LYP) =  -303.658594766     A.U. after   19 cycles
 SCF Done:  E(UB+HF-LYP) =  -303.671258710     A.U. after   18 cycles
 SCF Done:  E(UB+HF-LYP) =  -303.672536643     A.U. after   15 cycles
 SCF Done:  E(UB+HF-LYP) =  -303.672929558     A.U. after   14 cycles
 SCF Done:  E(UB+HF-LYP) =  -303.672833408     A.U. after   14 cycles
 SCF Done:  E(UB+HF-LYP) =  -303.672963078     A.U. after   14 cycles
 SCF Done:  E(UB+HF-LYP) =  -303.673005921     A.U. after   15 cycles
 SCF Done:  E(UB+HF-LYP) =  -303.673037339     A.U. after   15 cycles
 SCF Done:  E(UB+HF-LYP) =  -303.673040271     A.U. after   13 cycles
 SCF Done:  E(UB+HF-LYP) =  -303.673064238     A.U. after   14 cycles
 SCF Done:  E(UB+HF-LYP) =  -303.673899481     A.U. after   16 cycles
 SCF Done:  E(UB+HF-LYP) =  -303.674602508     A.U. after   15 cycles
 SCF Done:  E(UB+HF-LYP) =  -303.674445939     A.U. after   16 cycles
 SCF Done:  E(UB+HF-LYP) =  -303.674889879     A.U. after   19 cycles
 SCF Done:  E(UB+HF-LYP) =  -303.674528614     A.U. after   15 cycles
 SCF Done:  E(UB+HF-LYP) =  -303.674977802     A.U. after   15 cycles
 SCF Done:  E(UB+HF-LYP) =  -303.675032673     A.U. after   14 cycles
 SCF Done:  E(UB+HF-LYP) =  -303.675034760     A.U. after   13 cycles
 SCF Done:  E(UB+HF-LYP) =  -303.675034829     A.U. after   11 cycles
 Optimization completed.
    -- Stationary point found.
 Normal termination of Gaussian 03 at Fri Oct 21 02:59:33 2005.

 ----------------------------------------------------------------------
 #N Geom=AllCheck Guess=Read SCRF=Check GenChk UB3LYP/6-311+G(3df,2p) F
 req
 ----------------------------------------------------------------------

 acetyl radical, O2 adduct, not constrained to have Cs symmetry
 --------------------------------------------------------------
 Redundant internal coordinates taken from checkpoint file:
 acetyl_O2_adduct.chk
 Charge =  0 Multiplicity = 2

                         Standard orientation:
 ---------------------------------------------------------------------
 Center     Atomic     Atomic              Coordinates (Angstroms)
 Number     Number      Type              X           Y           Z
 ---------------------------------------------------------------------
    1          6             0       -0.553649   -0.131858    0.000013
    2          8             0       -1.470502   -0.881014    0.000028
    3          6             0       -0.554399    1.360480   -0.000018
    4          1             0       -0.029837    1.741556    0.874793
    5          1             0       -0.029646    1.741451   -0.874752
    6          1             0       -1.586954    1.694454   -0.000120
    7          8             0        0.745890   -0.763825   -0.000060
    8          8             0        1.761452    0.076191    0.000046
 ---------------------------------------------------------------------

 SCF Done:  E(UB+HF-LYP) =  -303.675034829     A.U. after    1 cycles

 The electronic state is 2-A.
 Alpha  occ. eigenvalues --  -19.27484 -19.23377 -19.16660 -10.34145 -10.21174
 Alpha  occ. eigenvalues --   -1.23266  -1.11151  -0.90149  -0.78994  -0.61767
 Alpha  occ. eigenvalues --   -0.54761  -0.54710  -0.52072  -0.46989  -0.46617
 Alpha  occ. eigenvalues --   -0.43922  -0.41752  -0.35882  -0.32548  -0.30462
 Alpha virt. eigenvalues --   -0.04381  -0.00601   0.02735   0.03643   0.03961
 Alpha virt. eigenvalues --    0.06514   0.07079   0.07895   0.08128   0.11388
 Alpha virt. eigenvalues --    0.11569   0.12084   0.15890   0.17618   0.19053

  Beta  occ. eigenvalues --  -19.26694 -19.21318 -19.16493 -10.34202 -10.21177
  Beta  occ. eigenvalues --   -1.20842  -1.10627  -0.86528  -0.78837  -0.60483
  Beta  occ. eigenvalues --   -0.54221  -0.51410  -0.51130  -0.46096  -0.43845
  Beta  occ. eigenvalues --   -0.43721  -0.39842  -0.35104  -0.29216
  Beta virt. eigenvalues --   -0.15804  -0.03348  -0.00570   0.03006   0.03745
  Beta virt. eigenvalues --    0.04043   0.06798   0.07208   0.08188   0.08604
  Beta virt. eigenvalues --    0.11711   0.11903   0.12214   0.16221   0.17813

 Mulliken atomic charges:
              1
     1  C    0.893595
     2  O   -0.614755
     3  C   -0.379548
     4  H    0.191390
     5  H    0.191395
     6  H    0.179354
     7  O   -0.264885
     8  O   -0.196546
 Sum of Mulliken charges=   0.00000

 Dipole moment (field-independent basis, Debye):
    X=    -0.3947    Y=     2.7512    Z=     0.0000  Tot=     2.7794
 Quadrupole moment (field-independent basis, Debye-Ang):
   XX=   -33.6780   YY=   -28.3292   ZZ=   -26.7551
   XY=    -2.4098   XZ=     0.0000   YZ=     0.0000

  Exact polarizability:  48.978   4.461  39.553   0.000   0.000  27.147
 Approx polarizability:  73.134  13.876  55.759   0.001   0.001  38.818

                     1                      2                      3
                     A                      A                      A
 Frequencies --   138.9727               166.6422               324.9740
 Red. masses --    10.1084                 1.0707                 4.4668
 Frc consts  --     0.1150                 0.0175                 0.2779
 IR Inten    --     1.8258                 0.3308                 9.6076

                     4                      5                      6
                     A                      A                      A
 Frequencies --   506.7799               542.6734               550.0846
 Red. masses --     4.7346                 2.7075                 7.2334
 Frc consts  --     0.7164                 0.4698                 1.2896
 IR Inten    --    12.9348                 6.5745                13.5666

                     7                      8                      9
                     A                      A                      A
 Frequencies --   733.6783               982.3224              1047.8019
 Red. masses --     6.3550                 2.5063                 1.7278
 Frc consts  --     2.0155                 1.4249                 1.1176
 IR Inten    --    54.0355                47.0217                 9.0026

                    10                     11                     12
                     A                      A                      A
 Frequencies --  1130.4775              1195.2988              1402.4804
 Red. masses --     2.8974                 7.0872                 1.2669
 Frc consts  --     2.1816                 5.9659                 1.4682
 IR Inten    --   102.7063                50.0096                28.4762

                    13                     14                     15
                     A                      A                      A
 Frequencies --  1463.1799              1467.7251              1893.8762
 Red. masses --     1.0445                 1.0455                12.2254
 Frc consts  --     1.3175                 1.3269                25.8355
 IR Inten    --    11.1108                 9.5610               250.8392

                    16                     17                     18
                     A                      A                      A
 Frequencies --  3059.8972              3120.2416              3160.5853
 Red. masses --     1.0350                 1.0988                 1.1048
 Frc consts  --     5.7093                 6.3031                 6.5025
 IR Inten    --     0.3814                 0.2624                 1.6944

 - Thermochemistry -
 -------------------
 Temperature   298.150 Kelvin.  Pressure   1.00000 Atm.
 Atom  1 has atomic number  6 and mass  12.00000

 Molecular mass:    75.00822 amu.
 Principal axes and moments of inertia in atomic units:
                           1         2         3
     EIGENVALUES --   193.88349 373.86171 556.72897
           X            0.99836  -0.05719   0.00000
           Y            0.05719   0.99836   0.00000
           Z            0.00000   0.00000   1.00000
 This molecule is an asymmetric top.
 Rotational symmetry number  1.
 Rotational temperatures (Kelvin)      0.44673     0.23167     0.15558
 Rotational constants (GHZ):           9.30838     4.82730     3.24169
 Zero-point vibrational energy     136898.8 (Joules/Mol)
                                   32.71960 (Kcal/Mol)
 Warning -- explicit consideration of   6 degrees of freedom as
           vibrations may cause significant error
 Vibrational temperatures:    199.95   239.76   467.56   729.14   780.79
          (Kelvin)            791.45  1055.60  1413.34  1507.55  1626.50
                             1719.77  2017.85  2105.19  2111.73  2724.86
                             4402.50  4489.33  4547.37

 Zero-point correction=                           0.052142 (Hartree/Particle)
 Thermal correction to Energy=                    0.057474
 Thermal correction to Enthalpy=                  0.058418
 Thermal correction to Gibbs Free Energy=         0.023090
 Sum of electronic and zero-point Energies=           -303.622893
 Sum of electronic and thermal Energies=              -303.617561
 Sum of electronic and thermal Enthalpies=            -303.616617
 Sum of electronic and thermal Free Energies=         -303.651945

                     E (Thermal)             CV                S
                      KCal/Mol        Cal/Mol-Kelvin    Cal/Mol-Kelvin
 Total                   36.065             17.161             74.354
 Electronic               0.000              0.000              1.377
 Translational            0.889              2.981             38.861
 Rotational               0.889              2.981             25.204
 Vibrational             34.288             11.199              8.911
 Vibration  1             0.615              1.914              2.818
 Vibration  2             0.624              1.883              2.473
 Vibration  3             0.709              1.626              1.285
 Vibration  4             0.862              1.235              0.641
 Vibration  5             0.898              1.156              0.560
 Vibration  6             0.905              1.140              0.544

 Optimization completed.
    -- Stationary point found.
 Normal termination of Gaussian 03 at Fri Oct 21 05:17:29 2005.
