 Gaussian 03, Revision B.05,
 Gaussian 03:  x86-Linux-G03RevB.05 24-Oct-2003

 --------------------------------------------
 # UB3LYP/6-311+g(3df,2p) opt freq scf(tight)
 --------------------------------------------

 ---------------
 O2 calculations
 ---------------
 Symbolic Z-matrix:
 Charge =  0 Multiplicity = 3

 SCF Done:  E(UB+HF-LYP) =  -150.379475604     A.U. after   10 cycles
 SCF Done:  E(UB+HF-LYP) =  -150.379487966     A.U. after    7 cycles
 SCF Done:  E(UB+HF-LYP) =  -150.379488502     A.U. after    6 cycles
 Optimization completed.
    -- Stationary point found.
 Normal termination of Gaussian 03 at Tue Dec 16 16:43:29 2008.

 ----------------------------------------------------------------------
 #N Geom=AllCheck Guess=Read SCRF=Check GenChk UB3LYP/6-311+G(3df,2p) F
 req
 ----------------------------------------------------------------------

 O2 calculations
 ---------------
 Redundant internal coordinates taken from checkpoint file:
 O2.chk
 Charge =  0 Multiplicity = 3

                         Standard orientation:
 ---------------------------------------------------------------------
 Center     Atomic     Atomic              Coordinates (Angstroms)
 Number     Number      Type              X           Y           Z
 ---------------------------------------------------------------------
    1          8             0        0.000000    0.000000    0.601629
    2          8             0        0.000000    0.000000   -0.601629
 ---------------------------------------------------------------------

 SCF Done:  E(UB+HF-LYP) =  -150.379488502     A.U. after    1 cycles

 The electronic state is 3-SGG.
 Alpha  occ. eigenvalues --  -19.29379 -19.29365  -1.32021  -0.84869  -0.57723
 Alpha  occ. eigenvalues --   -0.57723  -0.56379  -0.32012  -0.32012
 Alpha virt. eigenvalues --    0.07888   0.08225   0.12645   0.12645   0.19012
 Alpha virt. eigenvalues --    0.20314   0.20314   0.24683   0.32546   0.61348
 Alpha virt. eigenvalues --    0.61351   0.80690   0.81916   0.81916   0.81984

  Beta  occ. eigenvalues --  -19.26315 -19.26285  -1.26372  -0.75958  -0.52484
  Beta  occ. eigenvalues --   -0.47500  -0.47500
  Beta virt. eigenvalues --   -0.12629  -0.12629   0.08490   0.09207   0.13508
  Beta virt. eigenvalues --    0.13508   0.18907   0.21570   0.21570   0.28402
  Beta virt. eigenvalues --    0.33206   0.62993   0.62995   0.82205   0.82572

 Mulliken atomic charges:
              1
     1  O    0.000000
     2  O    0.000000
 Sum of Mulliken charges=   0.00000

 Dipole moment (field-independent basis, Debye):
    X=     0.0000    Y=     0.0000    Z=     0.0000  Tot=     0.0000
 Quadrupole moment (field-independent basis, Debye-Ang):
   XX=   -10.1317   YY=   -10.1317   ZZ=   -10.5297
   XY=     0.0000   XZ=     0.0000   YZ=     0.0000

  Exact polarizability:   7.518   0.000   7.518   0.000   0.000  14.913
 Approx polarizability:   9.197   0.000   9.197   0.000   0.000  25.497

                     1
                    SGG
 Frequencies --  1645.2806
 Red. masses --    15.9949
 Frc consts  --    25.5101
 IR Inten    --     0.0000

 - Thermochemistry -
 -------------------
 Temperature   298.150 Kelvin.  Pressure   1.00000 Atm.
 Atom  1 has atomic number  8 and mass  15.99491

 Molecular mass:    31.98983 amu.
 Principal axes and moments of inertia in atomic units:
                           1         2         3
     EIGENVALUES --     0.00000  41.34923  41.34923
           X            0.00000   1.00000   0.00000
           Y            0.00000   0.00000   1.00000
           Z            1.00000   0.00000   0.00000
 This molecule is a prolate symmetric top.
 Rotational symmetry number  2.
 Rotational temperature (Kelvin)      2.09469
 Rotational constant (GHZ):          43.646313
 Zero-point vibrational energy       9841.0 (Joules/Mol)
                                    2.35205 (Kcal/Mol)
 Vibrational temperatures:   2367.19
          (Kelvin)

 Zero-point correction=                           0.003748 (Hartree/Particle)
 Thermal correction to Energy=                    0.006111
 Thermal correction to Enthalpy=                  0.007056
 Thermal correction to Gibbs Free Energy=        -0.016213
 Sum of electronic and zero-point Energies=           -150.375740
 Sum of electronic and thermal Energies=              -150.373377
 Sum of electronic and thermal Enthalpies=            -150.372433
 Sum of electronic and thermal Free Energies=         -150.395702

                     E (Thermal)             CV                S
                      KCal/Mol        Cal/Mol-Kelvin    Cal/Mol-Kelvin
 Total                    3.835              5.013             48.973
 Electronic               0.000              0.000              2.183
 Translational            0.889              2.981             36.321
 Rotational               0.592              1.987             10.463
 Vibrational              2.354              0.045              0.006

 Optimization completed.
    -- Stationary point found.
 Normal termination of Gaussian 03 at Tue Dec 16 16:45:12 2008.
