 Gaussian 03, Revision B.05,
 Gaussian 03:  x86-Linux-G03RevB.05 24-Oct-2003

 --------------------------------------------
 # UB3LYP/6-311+g(3df,2p) opt freq scf(tight)
 --------------------------------------------

 ---------------
 OH calculations
 ---------------
 Symbolic Z-matrix:
 Charge =  0 Multiplicity = 2

 SCF Done:  E(UB+HF-LYP) =  -75.7277691407     A.U. after   11 cycles
 SCF Done:  E(UB+HF-LYP) =  -75.7644849470     A.U. after   13 cycles
 SCF Done:  E(UB+HF-LYP) =  -75.7655650139     A.U. after   10 cycles
 SCF Done:  E(UB+HF-LYP) =  -75.7655739160     A.U. after    7 cycles
 Optimization completed.
    -- Stationary point found.
 Normal termination of Gaussian 03 at Tue Dec 16 16:45:09 2008.

 ----------------------------------------------------------------------
 #N Geom=AllCheck Guess=Read SCRF=Check GenChk UB3LYP/6-311+G(3df,2p) F
 req
 ----------------------------------------------------------------------

 OH calculations
 ---------------
 Redundant internal coordinates taken from checkpoint file:
 OH.chk
 Charge =  0 Multiplicity = 2

                         Standard orientation:
 ---------------------------------------------------------------------
 Center     Atomic     Atomic              Coordinates (Angstroms)
 Number     Number      Type              X           Y           Z
 ---------------------------------------------------------------------
    1          8             0        0.000000    0.000000    0.108216
    2          1             0        0.000000    0.000000   -0.865729
 ---------------------------------------------------------------------

 SCF Done:  E(UB+HF-LYP) =  -75.7655739160     A.U. after    1 cycles

 Unable to determine electronic state:  an orbital has unidentified symmetry.
 Alpha  occ. eigenvalues --  -19.20681  -1.02936  -0.48959  -0.42917  -0.35702
 Alpha virt. eigenvalues --    0.02531   0.13702   0.13980   0.14861   0.18934
 Alpha virt. eigenvalues --    0.44126   0.61546   0.63385   0.74398   0.74478
 Alpha virt. eigenvalues --    0.85728   0.94140   0.97842   1.00350   1.11056

  Beta  occ. eigenvalues --  -19.18112  -0.95870  -0.46400  -0.33105
  Beta virt. eigenvalues --   -0.18528   0.03248   0.14123   0.15130   0.16471
  Beta virt. eigenvalues --    0.19135   0.44809   0.63381   0.63556   0.77008
  Beta virt. eigenvalues --    0.77349   0.86756   0.98905   1.01226   1.02064

 Mulliken atomic charges:
              1
     1  O   -0.256438
     2  H    0.256438
 Sum of Mulliken charges=   0.00000

 Dipole moment (field-independent basis, Debye):
    X=     0.0000    Y=     0.0000    Z=    -1.6842  Tot=     1.6842
 Quadrupole moment (field-independent basis, Debye-Ang):
   XX=    -6.9388   YY=    -5.5819   ZZ=    -4.7180
   XY=     0.0000   XZ=     0.0000   YZ=     0.0000

  Exact polarizability:   6.585   0.000   5.212   0.000   0.000   7.976
 Approx polarizability:   7.037   0.000   6.120   0.000   0.000  10.007

                     1
                    SG
 Frequencies --  3721.7855
 Red. masses --     1.0671
 Frc consts  --     8.7087
 IR Inten    --    14.3189

 - Thermochemistry -
 -------------------
 Temperature   298.150 Kelvin.  Pressure   1.00000 Atm.
 Atom  1 has atomic number  8 and mass  15.99491

 Molecular mass:    17.00274 amu.
 Principal axes and moments of inertia in atomic units:
                           1         2         3
     EIGENVALUES --     0.00000   3.21155   3.21155
           X            0.00000   0.00000   1.00000
           Y            0.00000   1.00000   0.00000
           Z            1.00000   0.00000   0.00000
 This molecule is a prolate symmetric top.
 Rotational symmetry number  1.
 Rotational temperature (Kelvin)     26.96947
 Rotational constant (GHZ):         561.953117
 Zero-point vibrational energy      22261.2 (Joules/Mol)
                                    5.32056 (Kcal/Mol)
 Vibrational temperatures:   5354.81
          (Kelvin)

 Zero-point correction=                           0.008479 (Hartree/Particle)
 Thermal correction to Energy=                    0.010839
 Thermal correction to Enthalpy=                  0.011784
 Thermal correction to Gibbs Free Energy=        -0.008446
 Sum of electronic and zero-point Energies=            -75.757095
 Sum of electronic and thermal Energies=               -75.754735
 Sum of electronic and thermal Enthalpies=             -75.753790
 Sum of electronic and thermal Free Energies=          -75.774020

                     E (Thermal)             CV                S
                      KCal/Mol        Cal/Mol-Kelvin    Cal/Mol-Kelvin
 Total                    6.802              4.968             42.576
 Electronic               0.000              0.000              1.377
 Translational            0.889              2.981             34.437
 Rotational               0.592              1.987              6.762
 Vibrational              5.321              0.000              0.000

 Optimization completed.
    -- Stationary point found.
 Normal termination of Gaussian 03 at Tue Dec 16 16:46:11 2008.
