 Gaussian 03, Revision B.05,
 Gaussian 03:  x86-Linux-G03RevB.05 24-Oct-2003

 ----------------------------------------------------------------------
 # opt=(qst2,maxcycle=100) freq ub3lyp/6-311+g(3df,2p) scf=(tight,maxcy
 cle=1000)
 ----------------------------------------------------------------------

 ---------------
 acetyl peroxide
 ---------------
 Symbolic Z-matrix:
 Charge =  0 Multiplicity = 2

 ------------
 OH falls off
 ------------
 Symbolic Z-matrix:
 Charge =  0 Multiplicity = 2

 SCF Done:  E(UB+HF-LYP) =  -303.627899913     A.U. after   19 cycles
 SCF Done:  E(UB+HF-LYP) =  -303.622378278     A.U. after   18 cycles
 SCF Done:  E(UB+HF-LYP) =  -303.623075670     A.U. after   18 cycles
 SCF Done:  E(UB+HF-LYP) =  -303.625451639     A.U. after   15 cycles
 SCF Done:  E(UB+HF-LYP) =  -303.623983469     A.U. after   19 cycles
 SCF Done:  E(UB+HF-LYP) =  -303.628795257     A.U. after   19 cycles
 SCF Done:  E(UB+HF-LYP) =  -303.629773370     A.U. after   18 cycles
 SCF Done:  E(UB+HF-LYP) =  -303.630168821     A.U. after   18 cycles
 SCF Done:  E(UB+HF-LYP) =  -303.630408883     A.U. after   21 cycles
 SCF Done:  E(UB+HF-LYP) =  -303.630618317     A.U. after   16 cycles
 SCF Done:  E(UB+HF-LYP) =  -303.630719806     A.U. after   14 cycles
 SCF Done:  E(UB+HF-LYP) =  -303.630723180     A.U. after   14 cycles
 SCF Done:  E(UB+HF-LYP) =  -303.630726030     A.U. after   14 cycles
 SCF Done:  E(UB+HF-LYP) =  -303.630727509     A.U. after   13 cycles
 SCF Done:  E(UB+HF-LYP) =  -303.630728746     A.U. after   13 cycles
 SCF Done:  E(UB+HF-LYP) =  -303.630729303     A.U. after   13 cycles
 SCF Done:  E(UB+HF-LYP) =  -303.630729650     A.U. after   21 cycles
 SCF Done:  E(UB+HF-LYP) =  -303.630729825     A.U. after   12 cycles
 SCF Done:  E(UB+HF-LYP) =  -303.630729855     A.U. after   21 cycles
 Optimization completed.
    -- Stationary point found.
 Normal termination of Gaussian 03 at Wed Oct 26 01:13:29 2005.

 ----------------------------------------------------------------------
 #N Geom=AllCheck Guess=Read SCRF=Check GenChk UB3LYP/6-311+G(3df,2p) F
 req
 ----------------------------------------------------------------------

 OH falls off
 ------------
 Redundant internal coordinates taken from checkpoint file:
 TS_OH_falling_off3.chk
 Charge =  0 Multiplicity = 2

                         Standard orientation:
 ---------------------------------------------------------------------
 Center     Atomic     Atomic              Coordinates (Angstroms)
 Number     Number      Type              X           Y           Z
 ---------------------------------------------------------------------
    1          6             0        0.513587    0.290325   -0.000029
    2          8             0        0.243135    1.455521   -0.000012
    3          6             0        1.719889   -0.539103    0.000041
    4          1             0       -1.837456    0.624908   -0.000039
    5          1             0        2.125804   -0.899276   -0.933366
    6          1             0        2.125771   -0.899043    0.933554
    7          8             0       -0.227363   -0.784692   -0.000071
    8          8             0       -1.992644   -0.337569    0.000055
 ---------------------------------------------------------------------

 SCF Done:  E(UB+HF-LYP) =  -303.630729855     A.U. after    1 cycles

 The electronic state is 2-A.
 Alpha  occ. eigenvalues --  -19.22463 -19.17637 -19.15167 -10.33947 -10.28062
 Alpha  occ. eigenvalues --   -1.13803  -1.05920  -0.99019  -0.78493  -0.60101
 Alpha  occ. eigenvalues --   -0.53862  -0.52830  -0.50997  -0.44926  -0.44367
 Alpha  occ. eigenvalues --   -0.42279  -0.36407  -0.33322  -0.31592  -0.29602
 Alpha virt. eigenvalues --   -0.12578  -0.02659  -0.01130   0.02334   0.03410
 Alpha virt. eigenvalues --    0.04999   0.05602   0.08122   0.08369   0.11064
 Alpha virt. eigenvalues --    0.12017   0.16856   0.17130   0.17362   0.18118

  Beta  occ. eigenvalues --  -19.22989 -19.15916 -19.15089 -10.34002 -10.27154
  Beta  occ. eigenvalues --   -1.14246  -1.06039  -0.94965  -0.76613  -0.59709
  Beta  occ. eigenvalues --   -0.53519  -0.52698  -0.50763  -0.44798  -0.43275
  Beta  occ. eigenvalues --   -0.39823  -0.36305  -0.32335  -0.30221
  Beta virt. eigenvalues --   -0.16087  -0.08170  -0.02757  -0.00846   0.02439
  Beta virt. eigenvalues --    0.03454   0.05691   0.05849   0.08139   0.08607
  Beta virt. eigenvalues --    0.11716   0.12171   0.17298   0.17556   0.17596

 Mulliken atomic charges:
              1
     1  C    0.931823
     2  O   -0.671431
     3  C   -0.272715
     4  H    0.274560
     5  H    0.205368
     6  H    0.205361
     7  O   -0.319636
     8  O   -0.353331
 Sum of Mulliken charges=   0.00000

 Dipole moment (field-independent basis, Debye):
    X=     3.6920    Y=    -0.9198    Z=     0.0000  Tot=     3.8049
 Quadrupole moment (field-independent basis, Debye-Ang):
   XX=   -25.1546   YY=   -32.6331   ZZ=   -27.5393
   XY=    -6.2350   XZ=     0.0005   YZ=     0.0000

  Exact polarizability:  80.101  -4.563  40.406   0.001   0.000  28.666
 Approx polarizability: 135.135  -2.939  64.873   0.001   0.001  39.094

 ******    1 imaginary frequencies (negative Signs) ******

                     1                      2                      3
                     A                      A                      A
 Frequencies --  -656.4981               156.7840               187.6845
 Red. masses --    12.6524                 5.3332                 7.2526
 Frc consts  --     3.2129                 0.0772                 0.1505
 IR Inten    --   177.2832                 1.0766                13.6706

                     4                      5                      6
                     A                      A                      A
 Frequencies --   296.4705               320.1151               378.1544
 Red. masses --     1.0961                 5.5153                 1.1781
 Frc consts  --     0.0568                 0.3330                 0.0993
 IR Inten    --    60.7602                 3.8688                31.2301

                     7                      8                      9
                     A                      A                      A
 Frequencies --   616.3625               634.0759               819.5867
 Red. masses --     5.2267                 2.0552                 1.4153
 Frc consts  --     1.1699                 0.4868                 0.5601
 IR Inten    --     4.5285                 8.3902                32.5369

                    10                     11                     12
                     A                      A                      A
 Frequencies --   973.3226              1008.5148              1012.6292
 Red. masses --     1.4694                 2.6257                 1.7618
 Frc consts  --     0.8202                 1.5735                 1.0644
 IR Inten    --    72.4096                45.8768                 2.5992

                    13                     14                     15
                     A                      A                      A
 Frequencies --  1182.8647              1430.4450              1859.9531
 Red. masses --     7.6906                 1.1746                12.7247
 Frc consts  --     6.3399                 1.4161                25.9358
 IR Inten    --    46.3443                 8.1519               367.4949

                    16                     17                     18
                     A                      A                      A
 Frequencies --  3155.9226              3276.3336              3682.5520
 Red. masses --     1.0494                 1.1214                 1.0678
 Frc consts  --     6.1581                 7.0923                 8.5315
 IR Inten    --    10.5564                 3.4787                46.6437

 - Thermochemistry -
 -------------------
 Temperature   298.150 Kelvin.  Pressure   1.00000 Atm.
 Atom  1 has atomic number  6 and mass  12.00000

 Molecular mass:    75.00822 amu.
 Principal axes and moments of inertia in atomic units:
                           1         2         3
     EIGENVALUES --   190.82758 423.22924 601.51286
           X            0.99707  -0.07649   0.00000
           Y            0.07649   0.99707   0.00000
           Z            0.00000   0.00000   1.00000
 This molecule is an asymmetric top.
 Rotational symmetry number  1.
 Rotational temperatures (Kelvin)      0.45389     0.20465     0.14399
 Rotational constants (GHZ):           9.45744     4.26422     3.00034
    1 imaginary frequencies ignored.
 Zero-point vibrational energy     125558.7 (Joules/Mol)
                                   30.00924 (Kcal/Mol)
 Warning -- explicit consideration of   6 degrees of freedom as
           vibrations may cause significant error
 Vibrational temperatures:    225.58   270.04   426.55   460.57   544.08
          (Kelvin)            886.81   912.29  1179.20  1400.39  1451.03
                             1456.95  1701.88  2058.09  2676.05  4540.66
                             4713.91  5298.36

 Zero-point correction=                           0.047823 (Hartree/Particle)
 Thermal correction to Energy=                    0.053522
 Thermal correction to Enthalpy=                  0.054466
 Thermal correction to Gibbs Free Energy=         0.018540
 Sum of electronic and zero-point Energies=           -303.582907
 Sum of electronic and thermal Energies=              -303.577208
 Sum of electronic and thermal Enthalpies=            -303.576264
 Sum of electronic and thermal Free Energies=         -303.612190

                     E (Thermal)             CV                S
                      KCal/Mol        Cal/Mol-Kelvin    Cal/Mol-Kelvin
 Total                   33.586             18.593             75.613
 Electronic               0.000              0.000              1.377
 Translational            0.889              2.981             38.861
 Rotational               0.889              2.981             25.388
 Vibrational             31.808             12.632              9.987
 Vibration  1             0.620              1.895              2.588
 Vibration  2             0.632              1.857              2.251
 Vibration  3             0.690              1.680              1.437
 Vibration  4             0.706              1.635              1.310
 Vibration  5             0.748              1.517              1.047
 Vibration  6             0.976              0.997              0.422

 Optimization completed.
    -- Stationary point found.
 Normal termination of Gaussian 03 at Wed Oct 26 03:31:48 2005.
